/*--------------------------------*- C++ -*----------------------------------*\
  =========                 |
  \\      /  F ield         | OpenFOAM: The Open Source CFD Toolbox
   \\    /   O peration     | Website:  https://openfoam.org
    \\  /    A nd           | Version:  10
     \\/     M anipulation  |
\*---------------------------------------------------------------------------*/
FoamFile
{
    format      ascii;
    class       volVectorField;
    location    "0";
    object      wallShearStress;
}
// * * * * * * * * * * * * * * * * * * * * * * * * * * * * * * * * * * * * * //

dimensions      [0 2 -2 0 0 0 0];

internalField   uniform (0 0 0);

boundaryField
{
    front
    {
        type            empty;
    }
    back
    {
        type            empty;
    }
    exit
    {
        type            calculated;
        value           uniform (0 0 0);
    }
    bottom
    {
        type            calculated;
        value           uniform (0 0 0);
    }
    inlet
    {
        type            calculated;
        value           uniform (0 0 0);
    }
    top
    {
        type            calculated;
        value           uniform (0 0 0);
    }
    aerofoil
    {
        type            calculated;
        value           nonuniform List<vector> 
407
(
(-0.262173 -0.00273744 1.45035e-23)
(-0.226481 -0.00205756 -0)
(-0.21587 -0.00812098 -0)
(-0.232454 -0.00106635 -0)
(-0.229478 0.0079544 0)
(-0.208454 0.00776856 -1.65599e-22)
(-0.183355 -8.19312e-05 0)
(-0.236515 0.00242238 1.28342e-23)
(-0.186429 -0.00884406 -0)
(-0.238214 -0.00865552 1.84468e-22)
(-0.234067 0.00761361 1.62067e-22)
(-0.230693 -0.00364065 -3.86009e-23)
(-0.230439 -0.0103433 -2.21197e-22)
(-0.241934 -0.0067768 -1.44081e-22)
(-0.19783 -0.0157726 0)
(-0.286251 0.00596463 -6.32922e-23)
(-0.19697 -0.00513434 -0)
(-0.195578 -0.0105365 0)
(-0.287708 -0.0102127 -0)
(-0.274836 0.00808376 0)
(-0.249475 -0.00330337 -0)
(-0.22994 0.00766448 0)
(-0.219806 0.010254 0)
(-0.23998 0.00921885 0)
(-0.237086 -0.00135457 -0)
(-0.243141 -0.0051775 -0)
(-0.252008 -0.00613503 -6.51526e-23)
(-0.272802 0.00633927 0)
(-0.239925 0.00831337 0)
(-0.234885 -0.00216004 0)
(-0.241067 0.00921309 0)
(-0.236082 -0.00139528 0)
(-0.225092 0.0233234 0)
(-0.213538 -0.00933326 -1.99475e-22)
(-0.238489 -0.0105079 2.24625e-22)
(-0.214148 -0.00335263 -0)
(-0.226079 -0.00480823 -5.10315e-23)
(-0.25492 -0.0130536 -0)
(-0.256187 -0.00299826 -0)
(-0.234179 -0.0109142 0)
(-0.203045 -0.00676014 0)
(-0.284518 0.00136992 3.7776e-22)
(-0.214512 -0.00217991 -0)
(-0.209008 -0.0108471 0)
(-0.211931 -0.00876426 -0)
(-0.20779 -0.00501777 5.32875e-23)
(-0.210077 -0.00163978 8.68615e-24)
(-0.275982 0.00692939 0)
(-0.253488 0.0356322 0)
(-0.217044 -0.000413895 0)
(-0.248818 -0.000859472 2.27591e-24)
(-0.241489 -0.0111933 -2.39518e-22)
(-0.248207 -0.00642131 0)
(-0.236436 -0.00725727 0)
(-0.247858 0.00194162 0)
(-0.23698 -0.00536327 0)
(-0.262811 -0.0107087 -0)
(-0.293011 0.00144997 3.83958e-24)
(-0.274402 0.00116551 0)
(-0.234276 -0.00909251 -0)
(-0.248761 -0.0109885 2.34899e-22)
(-0.214318 -0.0101155 -0)
(-0.242824 -0.000830673 -0)
(-0.275987 0.00715481 1.51995e-22)
(-0.241978 0.00457887 0)
(-0.308603 -0.0117412 -2.50382e-22)
(-0.243919 0.00527022 5.59348e-23)
(-0.224578 -0.00295821 0)
(-0.219702 -0.00766972 0)
(-0.241679 0.00414142 -4.39193e-23)
(-0.24795 0.00848161 0)
(-0.272874 0.00657209 -6.97941e-23)
(-0.277134 0.013239 0)
(-0.242253 -0.00349838 0)
(-0.236403 -0.00227139 0)
(-0.308883 -0.013858 -0)
(-0.23183 -0.00902615 0)
(-0.30921 -0.000296957 1.96588e-25)
(-0.262137 -0.00288684 1.52951e-23)
(-0.268719 0.00256104 -1.35689e-23)
(-0.243619 -0.0104787 -2.23893e-22)
(-0.232315 -0.00804371 -0)
(-0.246845 -0.0048174 -0)
(-0.24364 0.00727865 0)
(-0.257024 0.00396342 0)
(-0.266183 -0.00486736 5.16281e-23)
(-0.245156 0.00658831 -1.40017e-22)
(-0.242004 0.00336372 0)
(-0.265868 0.00764901 0)
(-0.242031 0.00601625 0)
(-0.264684 0.00520738 5.52458e-23)
(-0.236477 -0.00737923 -0)
(-0.283392 0.00176636 0)
(-0.287295 0.00966861 0)
(-0.246013 0.00903629 0)
(-0.25777 0.00125291 -3.31774e-24)
(-0.263282 0.00220339 -1.16716e-23)
(-0.270383 0.0330413 0)
(-0.242875 0.00646525 1.37402e-22)
(-0.242713 0.00305157 0)
(-0.237672 -0.00129864 0)
(-0.243376 -0.00499423 -5.29951e-23)
(-0.222916 -0.0211832 0)
(-0.252101 0.00189565 1.00415e-23)
(-0.251291 0.00441422 -4.68217e-23)
(-0.274178 -0.00896603 1.90855e-22)
(-0.251214 0.00078736 1.04248e-24)
(-0.282325 0.00172962 0)
(-0.281386 0.00457653 -4.85238e-23)
(-0.275522 0.0100674 0)
(-0.261415 -0.0368221 0)
(-0.277575 0.010364 0)
(-0.226794 0.00263221 1.39487e-23)
(-0.244421 0.00756834 1.61039e-22)
(-0.286415 0.000151096 0)
(-0.245477 -0.00905438 -0)
(-0.30862 -0.0118167 -0)
(-0.254482 5.43002e-05 0)
(-0.254277 0.00914635 0)
(-0.255558 0.0095633 0)
(-0.256663 0.0353027 0)
(-0.250444 -0.00978362 2.08721e-22)
(-0.235863 0.000401113 5.31081e-25)
(-0.255362 0.0191722 0)
(-0.268104 0.000416526 0)
(-0.215226 0.000624342 8.26641e-25)
(-0.262441 0.00584821 -6.20817e-23)
(-0.25112 -0.0112376 -0)
(-0.251961 -0.00735046 -1.56308e-22)
(-0.231736 0.00205248 0)
(-0.250802 0.00955802 2.03826e-22)
(-0.2567 0.00826541 1.75942e-22)
(-0.251694 -0.0058014 -0)
(-0.248834 -0.00358189 -0)
(-0.251047 -0.00194515 0)
(-0.251604 -0.00697427 0)
(-0.243222 -0.0112638 2.41026e-22)
(-0.26172 -0.00223099 -0)
(-0.242849 0.00695396 0)
(-0.234945 0.00267477 0)
(-0.243151 0.00552953 0)
(-0.28476 -0.0134962 2.88914e-22)
(-0.265957 -0.0100608 2.14505e-22)
(-0.264312 -0.0127102 -0)
(-0.293852 0.014015 0)
(-0.280317 -0.00356228 -1.88774e-23)
(-0.260513 0.00469817 0)
(-0.265867 -0.00167163 -0)
(-0.27363 -0.00598315 -0)
(-0.290014 0.0147954 0)
(-0.26704 0.00939338 0)
(-0.268289 0.010175 -2.16982e-22)
(-0.301167 0.00584182 6.19766e-23)
(-0.28297 0.0085172 0)
(-0.319805 0.0192638 -8.30623e-22)
(-0.276937 9.97372e-05 0)
(-0.272324 -0.0134437 -0)
(-0.279762 -0.00884731 -0)
(-0.289558 -0.0120553 -0)
(-0.268394 0.0223421 -9.81622e-22)
(-0.270503 -0.0121445 -2.59714e-22)
(-0.351776 0.00521515 0)
(-0.249584 -0.0012863 -0)
(-0.286289 -0.0323481 0)
(-0.237759 -0.00168808 8.942e-24)
(-0.289389 -0.0118817 -2.53685e-22)
(-0.235747 0.00802324 0)
(-0.24594 0.0094418 0)
(-0.291158 -0.00726284 -7.71452e-23)
(-0.251043 -0.00204226 0)
(-0.255253 -0.00528497 -5.60802e-23)
(-0.295627 -0.00689349 7.31926e-23)
(-0.276121 -0.0117887 -0)
(-0.276361 -0.00881667 0)
(-0.283452 -0.00708035 0)
(-0.24887 -0.00714253 1.51856e-22)
(-0.261925 -0.0117753 2.51768e-22)
(-0.276411 0.00764032 0)
(-0.285517 -0.00998658 -0)
(-0.297294 0.0380455 0)
(-0.2805 0.0335738 0)
(-0.302234 -0.00257434 0)
(-0.334436 -0.00569025 -0)
(-0.300283 -0.0130394 2.78627e-22)
(-0.290569 0.0112663 0)
(-0.281534 -0.011295 -0)
(-0.287747 -0.0128935 -0)
(-0.263595 -0.00127419 0)
(-0.271708 0.00557204 -5.91263e-23)
(-0.287877 -0.00985101 -0)
(-0.289327 -0.00278383 -0)
(-0.256809 0.00970008 2.06814e-22)
(-0.276882 0.00763802 0)
(-0.291899 0.00355448 0)
(-0.33292 -0.00323295 0)
(-0.329757 -0.00595586 -6.31738e-23)
(-0.2876 -0.0135634 -0)
(-0.286409 -0.000318992 0)
(-0.319236 -0.00642065 6.81312e-23)
(-0.310933 -0.00306053 0)
(-0.258554 0.00283022 -1.4995e-23)
(-0.294045 0.0034225 1.81367e-23)
(-0.349964 0.0107576 0)
(-0.292775 0.00105229 -2.78651e-24)
(-0.266057 -0.0147937 6.36091e-22)
(-0.297177 0.0093613 0)
(-0.329804 -0.0122513 -2.61207e-22)
(-0.272949 -0.00873406 -0)
(-0.297211 0.010666 0)
(-0.321168 0.0218121 0)
(-0.321885 0.00235861 0)
(-0.298738 -0.0105332 -0)
(-0.29268 -0.0036786 1.94939e-23)
(-0.325768 -0.0025992 -0)
(-0.338183 -0.00412259 2.18466e-23)
(-0.267461 0.00764134 0)
(-0.321347 -0.00955573 -0)
(-0.309052 -0.0115511 -0)
(-0.321939 -0.0144779 -0)
(-0.267204 -0.00710593 -0)
(-0.292303 -0.0104263 -0)
(-0.333456 -0.0165042 3.53735e-22)
(-0.289636 0.00873459 1.85817e-22)
(-0.30048 -0.00414609 4.39512e-23)
(-0.29925 -0.00920077 1.95734e-22)
(-0.326227 0.00348095 0)
(-0.320199 0.0101738 0)
(-0.332419 0.0106514 -2.26685e-22)
(-0.320407 -0.012769 -0)
(-0.331226 -0.0140366 -2.99815e-22)
(-0.325611 0.00139604 3.69676e-24)
(-0.291571 0.00295853 1.56717e-23)
(-0.299628 0.0054631 0)
(-0.350886 0.00343812 0)
(-0.301142 0.00770741 0)
(-0.350042 -0.0138569 -2.95678e-22)
(-0.306342 -0.00167066 4.42396e-24)
(-0.346821 -0.0104952 -0)
(-0.33121 0.0284308 0)
(-0.282209 -0.00389773 4.13185e-23)
(-0.339892 -0.0114759 -2.44381e-22)
(-0.303495 0.00453041 0)
(-0.347168 -0.0020945 0)
(-0.340761 0.00224192 -1.18734e-23)
(-0.306329 0.00271111 -1.43611e-23)
(-0.323877 -0.00528902 -0)
(-0.348554 0.00173598 0)
(-0.31549 0.00621732 0)
(-0.348557 0.0113557 0)
(-0.31452 0.00666646 0)
(-0.334633 -0.0119769 -0)
(-0.335473 -0.0090876 -1.93133e-22)
(-0.35464 -0.0160502 3.4324e-22)
(-0.327222 0.00881869 -1.87418e-22)
(-0.315391 0.00461601 0)
(-0.334757 0.0103163 -2.19466e-22)
(-0.286748 -0.0067973 7.21712e-23)
(-0.31006 -0.0130695 -2.79157e-22)
(-0.329783 -0.0109649 -0)
(-0.299941 -0.0131743 2.81623e-22)
(-0.28756 -0.0135808 -2.90725e-22)
(-0.354728 0.00863339 0)
(-0.351518 -0.000550915 0)
(-0.34295 -0.000759321 1.00535e-24)
(-0.350048 0.00104812 0)
(-0.329989 -0.00345277 0)
(-0.365965 -0.0163221 -0)
(-0.313785 0.00181487 4.80681e-24)
(-0.303555 0.0127033 0)
(-0.344879 0.00441934 -4.68384e-23)
(-0.314031 -0.000502535 -0)
(-0.357083 -0.00264939 -0)
(-0.315856 -0.0141346 -0)
(-0.323458 -0.000912431 -0)
(-0.362192 -0.00140996 0)
(-0.31656 0.00807852 0)
(-0.352131 -0.00666093 -7.06667e-23)
(-0.34634 0.00238059 0)
(-0.320954 -0.0198869 0)
(-0.298929 0.00395109 -4.18757e-23)
(-0.317229 0.00259863 0)
(-0.331348 -0.0147091 -0)
(-0.314971 0.00516126 0)
(-0.294549 0.00896056 0)
(-0.323385 0.0011707 0)
(-0.353041 0.00477773 -5.06469e-23)
(-0.290821 0.00707039 0)
(-0.268745 0.0048681 0)
(-0.32927 0.00765857 -8.13159e-23)
(-0.278575 0.00624193 0)
(-0.330523 -0.00843268 -0)
(-0.310203 0.00862249 0)
(-0.311722 -0.000841913 0)
(-0.320555 -0.0123528 -0)
(-0.361442 -0.00098829 0)
(-0.273361 0.00954727 0)
(-0.347827 0.00261314 -1.38422e-23)
(-0.33239 -0.0119795 -0)
(-0.330758 0.010458 0)
(-0.273062 -0.0100418 0)
(-0.333811 -0.00357195 -0)
(-0.327101 0.0118602 0)
(-0.332108 -0.0062778 -0)
(-0.318343 -0.0130614 0)
(-0.333073 -0.00918052 -0)
(-0.33076 0.00970053 0)
(-0.301124 0.00122522 -3.24442e-24)
(-0.311541 -0.00513803 -5.44882e-23)
(-0.383076 0.00770085 8.17157e-23)
(-0.343324 -0.00385697 -0)
(-0.302579 -0.0149479 0)
(-0.316581 0.0142522 -3.04776e-22)
(-0.330762 0.00777998 0)
(-0.344068 -0.00516797 -0)
(-0.363601 0.00688988 0)
(-0.370769 0.00974597 0)
(-0.344166 0.0122586 0)
(-0.360291 0.000700513 0)
(-0.346231 0.0129829 -2.76805e-22)
(-0.355741 0.00601748 6.38147e-23)
(-0.356618 0.00243698 0)
(-0.363746 0.0409245 0)
(-0.314672 -0.00706168 -7.49634e-23)
(-0.332256 -0.0148872 -3.18303e-22)
(-0.3183 -0.00218318 1.15623e-23)
(-0.355635 0.0131972 2.81376e-22)
(-0.306828 -0.0257246 -1.13097e-21)
(-0.342979 0.0126026 2.68643e-22)
(-0.32296 -0.0145009 -0)
(-0.354184 0.000786556 0)
(-0.299746 -0.0154292 -6.61923e-22)
(-0.326695 0.000337648 0)
(-0.343818 0.000300386 1.98858e-25)
(-0.385164 0.0550824 0)
(-0.3282 -0.000102856 1.70196e-26)
(-0.327337 0.0122744 -2.617e-22)
(-0.325795 0.0118107 0)
(-0.359793 -0.0162312 -0)
(-0.329783 -0.00070444 0)
(-0.384002 0.00464035 0)
(-0.353585 0.00474428 0)
(-0.349504 -0.00140064 -0)
(-0.388964 0.000913073 0)
(-0.322313 0.0108077 0)
(-0.373503 0.00531706 -5.63642e-23)
(-0.36859 -0.0134963 -0)
(-0.374813 -0.0175589 -3.75807e-22)
(-0.378757 -0.00183138 0)
(-0.380218 0.00409712 0)
(-0.339336 -0.0149746 -0)
(-0.381156 0.00362502 0)
(-0.363059 -0.0041896 2.22017e-23)
(-0.38842 -0.0184202 -3.94323e-22)
(-0.32575 -0.00492087 0)
(-0.334482 0.0047204 -5.00493e-23)
(-0.414172 -0.0173555 -0)
(-0.395013 -0.00475243 0)
(-0.344997 -0.00985655 -2.09559e-22)
(-0.451047 -0.0322493 0)
(-0.368114 0.0201634 0)
(-0.399975 0.00510943 -5.41523e-23)
(-0.408937 0.00873757 9.27352e-23)
(-0.411513 0.0329091 1.44123e-21)
(-0.398322 -0.0078628 8.34174e-23)
(-0.415499 0.0117139 0)
(-0.412958 -0.0188783 4.03801e-22)
(-0.415243 -0.0163269 3.48312e-22)
(-0.415704 -0.00734078 -0)
(-0.406944 -0.0026779 1.41852e-23)
(-0.34167 0.0130974 0)
(-0.365417 -0.0108378 0)
(-0.423676 -0.0182568 3.90113e-22)
(-0.405806 -0.00364436 0)
(-0.368278 0.00598586 0)
(-0.34425 0.0112287 0)
(-0.41502 0.00339141 1.79648e-23)
(-0.377063 0.0117979 -2.51034e-22)
(-0.429152 -0.0173422 -0)
(-0.412584 0.037083 0)
(-0.429353 0.015312 0)
(-0.377936 -0.00157252 -4.16408e-24)
(-0.431662 0.00389657 -2.06407e-23)
(-0.341481 -0.00236809 0)
(-0.424188 0.00730981 7.75196e-23)
(-0.432751 0.0161445 0)
(-0.439642 0.00823397 0)
(-0.320777 -0.00704706 0)
(-0.41676 0.0203051 0)
(-0.398527 -0.029804 0)
(-0.44609 -0.0144269 -0)
(-0.433049 0.00951166 0)
(-0.397219 -0.0106334 0)
(-0.428139 0.00668014 0)
(-0.384168 0.0140005 -2.98382e-22)
(-0.386302 0.0144781 0)
(-0.433038 -0.000285572 0)
(-0.383177 0.00209776 0)
(-0.437437 0.01763 0)
(-0.450457 0.0195592 0)
(-0.440139 0.0145774 0)
(-0.400087 0.00817582 0)
(-0.432046 0.0127022 -2.70113e-22)
(-0.453833 0.00254455 0)
(-0.459761 0.00716744 0)
(-0.328168 -0.0147197 0)
(-0.408289 -0.00703045 0)
(-0.404919 -0.0558897 0)
)
;
    }
}


// ************************************************************************* //
