/*--------------------------------*- C++ -*----------------------------------*\
  =========                 |
  \\      /  F ield         | OpenFOAM: The Open Source CFD Toolbox
   \\    /   O peration     | Website:  https://openfoam.org
    \\  /    A nd           | Version:  10
     \\/     M anipulation  |
\*---------------------------------------------------------------------------*/
FoamFile
{
    format      ascii;
    class       volVectorField;
    location    "0";
    object      wallShearStress;
}
// * * * * * * * * * * * * * * * * * * * * * * * * * * * * * * * * * * * * * //

dimensions      [0 2 -2 0 0 0 0];

internalField   uniform (0 0 0);

boundaryField
{
    back
    {
        type            empty;
    }
    front
    {
        type            empty;
    }
    exit
    {
        type            calculated;
        value           uniform (0 0 0);
    }
    bottom
    {
        type            calculated;
        value           uniform (0 0 0);
    }
    inlet
    {
        type            calculated;
        value           uniform (0 0 0);
    }
    top
    {
        type            calculated;
        value           uniform (0 0 0);
    }
    aerofoil
    {
        type            calculated;
        value           nonuniform List<vector> 
816
(
(-47.1453 -2.7584 1.18819e-19)
(-47.146 -2.76073 -1.1892e-19)
(-46.8001 0.02496 0)
(-46.8002 0.0380791 0)
(-47.356 -2.75857 -0)
(-47.356 -2.77404 -1.19493e-19)
(-47.5744 -2.78655 -1.20032e-19)
(-47.1287 -2.74175 -1.18054e-19)
(-47.361 -2.7714 -0)
(-47.1448 -2.75697 -0)
(-47.3524 -2.7649 1.19099e-19)
(-47.1277 -2.73849 -0)
(-47.1136 -2.72967 -0)
(-47.9765 -2.78343 -0)
(-62.4 0 0)
(-47.359 -2.76628 -0)
(-47.3512 -2.7619 -0)
(-47.0489 -2.6646 -0)
(-47.3169 -2.73204 -0)
(-47.5262 -2.7323 -0)
(-47.5088 -2.71918 -0)
(-47.2735 -2.69132 -1.15788e-19)
(-47.0487 -2.66391 -0)
(-47.2443 -2.65887 -0)
(-47.4482 -2.65951 -0)
(-47.2517 -2.66265 -0)
(-47.3267 -2.3324 -4.99904e-20)
(-47.3255 -2.32854 4.98875e-20)
(-47.2542 -2.68626 -0)
(-47.2613 -2.68905 1.15691e-19)
(-47.0515 -2.67375 -0)
(-47.0486 -2.66345 -1.14589e-19)
(-47.2438 -2.65754 -1.14335e-19)
(-47.2409 -2.63217 -0)
(-47.0296 -2.59384 -0)
(-47.0219 -2.56356 1.10157e-19)
(-47.0896 -2.5371 -1.0902e-19)
(-47.2754 -2.516 1.08026e-19)
(-47.193 -2.48204 -1.06525e-19)
(-47.1791 -2.45491 1.0536e-19)
(-47.2447 -2.43263 -0)
(-47.056 -2.40016 1.02927e-19)
(-47.044 -2.37826 -1.01988e-19)
(-47.1068 -2.36354 -0)
(-47.1008 -2.345 -0)
(-47.2124 -2.33575 5.00419e-20)
(-47.2113 -2.33252 -0)
(-47.2107 -2.33044 4.99282e-20)
(-47.3272 -2.33386 -0)
(-47.1698 -1.9241 -0)
(-47.0234 -1.9067 -0)
(-46.7593 -1.88668 -0)
(-46.8731 -1.88046 4.01252e-20)
(-47.1271 -1.88064 -0)
(-47.2071 -2.31923 4.96881e-20)
(-47.0898 -2.31057 -0)
(-47.2052 -2.31275 -0)
(-47.2037 -2.30802 -4.94479e-20)
(-47.0857 -2.29732 -0)
(-47.0848 -2.29409 -0)
(-47.0831 -2.28849 -0)
(-47.0817 -2.28407 -4.89347e-20)
(-47.08 -2.27847 4.8795e-20)
(-47.0783 -2.27258 -0)
(-47.0767 -2.26727 -0)
(-47.075 -2.26137 -0)
(-47.1895 -2.26018 -0)
(-47.1876 -2.25395 -0)
(-47.0692 -2.24162 -0)
(-47.0672 -2.23454 -0)
(-47.065 -2.22686 -0)
(-47.063 -2.21977 -0)
(-47.0609 -2.21209 -0)
(-47.0584 -2.20296 -4.71397e-20)
(-47.056 -2.19409 -0)
(-47.0536 -2.18522 -0)
(-47.0513 -2.17634 -0)
(-47.0484 -2.16544 -0)
(-47.2075 -2.16361 -0)
(-47.3717 -2.1591 -0)
(-47.2059 -2.14014 -0)
(-47.0372 -2.12099 -0)
(-47.034 -2.10771 -0)
(-46.9146 -2.08888 -4.46626e-20)
(-46.9113 -2.07445 -0)
(-47.1785 -2.07231 -0)
(-47.1795 -2.05481 -0)
(-47.1684 -2.03797 -0)
(-47.2028 -2.02031 4.31615e-20)
(-47.1976 -2.00586 -4.28528e-20)
(-47.0447 -1.98854 -4.24656e-20)
(-46.7741 -1.96768 -0)
(-46.8877 -1.96302 -0)
(-47.002 -1.95774 -0)
(-46.8838 -1.94277 -4.14882e-20)
(-46.882 -1.93249 -0)
(-47.0232 -1.92837 -0)
(-46.9027 -0.828693 8.78819e-21)
(-46.7844 -0.814246 -8.63498e-21)
(-46.783 -0.801242 -0)
(-46.8985 -0.790825 -0)
(-46.8971 -0.777162 -0)
(-46.7791 -0.762833 -0)
(-46.7779 -0.749818 7.95173e-21)
(-46.7767 -0.737126 -0)
(-46.8925 -0.72621 -0)
(-47.0091 -0.714658 7.57583e-21)
(-47.1526 -1.87018 -0)
(-47.0114 -1.85373 3.9539e-20)
(-47.0027 -1.84278 -0)
(-47.0255 -1.83222 3.90802e-20)
(-47.1395 -1.82649 -0)
(-47.1359 -1.81437 -0)
(-47.133 -1.80407 -0)
(-47.1293 -1.79124 3.81908e-20)
(-46.878 -1.77095 -0)
(-46.7401 -1.75443 -0)
(-46.8672 -1.74786 -0)
(-46.9999 -1.74142 -0)
(-46.9967 -1.72923 -3.68537e-20)
(-46.9935 -1.71712 -0)
(-46.9905 -1.7056 -0)
(-46.9875 -1.69348 -0)
(-46.9844 -1.68129 -0)
(-46.8583 -1.66419 -0)
(-46.729 -1.64822 -0)
(-46.8482 -1.63982 -3.49342e-20)
(-46.9727 -1.63213 3.47704e-20)
(-46.9698 -1.61934 -0)
(-46.8487 -1.60254 -0)
(-46.8407 -1.58963 -0)
(-46.9615 -1.58166 -0)
(-46.9587 -1.56828 3.33965e-20)
(-46.9561 -1.55549 -3.3111e-20)
(-46.9535 -1.54271 3.28389e-20)
(-46.9512 -1.53114 -3.25926e-20)
(-46.8322 -1.51518 -0)
(-46.8302 -1.50426 -0)
(-46.8278 -1.49208 -0)
(-46.8258 -1.48055 -3.15031e-20)
(-46.9403 -1.47265 -0)
(-46.9383 -1.46106 -0)
(-46.9361 -1.44829 -0)
(-46.9343 -1.43726 3.05819e-20)
(-46.9322 -1.42448 -3.02979e-20)
(-46.9304 -1.41288 -0)
(-46.9285 -1.40066 2.97912e-20)
(-46.9267 -1.38905 -0)
(-47.0259 -1.37978 2.93472e-20)
(-47.0294 -1.36714 -0)
(-46.9215 -1.35243 -0)
(-46.9198 -1.33958 -0)
(-46.9183 -1.32795 -0)
(-46.8959 -1.31451 -2.79477e-20)
(-46.8997 -1.30252 -0)
(-46.8911 -1.28997 -2.74259e-20)
(-46.7783 -1.27418 -0)
(-46.6783 -1.25929 -2.67629e-20)
(-46.8838 -1.25262 -0)
(-47.005 -1.24249 -0)
(-46.9071 -1.22816 2.61012e-20)
(-46.9059 -1.21479 -0)
(-46.8754 -1.20162 -0)
(-46.8492 -1.18823 -0)
(-46.8462 -1.1753 -0)
(-46.8756 -1.16332 -0)
(-46.9845 -1.15296 -0)
(-46.9889 -1.14032 -0)
(-46.8637 -1.12423 1.19414e-20)
(-46.9489 -1.11353 -0)
(-47.0637 -1.10269 -0)
(-46.9435 -1.08694 -1.15408e-20)
(-46.8632 -1.07176 -1.1375e-20)
(-46.9726 -1.06174 -0)
(-46.9772 -1.04786 -0)
(-46.8948 -1.03371 -0)
(-46.9683 -1.02278 1.08595e-20)
(-46.9288 -1.00857 -0)
(-46.7383 -0.99179 -0)
(-46.7309 -0.979121 -0)
(-46.8056 -0.96837 -0)
(-46.8034 -0.955011 1.01318e-20)
(-46.9184 -0.945381 -0)
(-47.034 -0.934328 -0)
(-46.9145 -0.918976 -9.74953e-21)
(-46.9127 -0.906577 9.618e-21)
(-47.0285 -0.895796 9.50362e-21)
(-46.9633 -0.881197 -0)
(-46.8391 -0.86624 -9.19006e-21)
(-46.789 -0.852963 -9.04919e-21)
(-46.9043 -0.842345 -0)
(-47.1753 2.04044 0)
(-47.1749 2.06013 4.40301e-20)
(-46.9098 2.06814 0)
(-47.0755 2.09348 0)
(-47.1938 2.12157 0)
(-47.0742 2.13801 4.57204e-20)
(-47.1181 2.18102 0)
(-47.102 2.24052 0)
(-47.0737 2.31575 0)
(-47.0681 2.41053 -1.03397e-19)
(-47.1659 2.52988 1.08662e-19)
(-47.3645 2.66847 -1.14786e-19)
(-47.348 2.79037 0)
(-47.3408 2.88174 0)
(-47.4548 2.93608 0)
(-47.4564 2.94017 0)
(-47.3345 2.91935 0)
(-47.1984 2.9168 -1.25893e-19)
(-47.3035 2.95243 0)
(-47.4184 3.01183 -1.30143e-19)
(-46.8904 -0.699817 -0)
(-46.7726 -0.68505 -0)
(-46.8192 -0.673595 -0)
(-46.8234 -0.659474 -0)
(-46.7701 -0.646587 -0)
(-46.8863 -0.63576 -0)
(-46.8856 -0.622069 -0)
(-46.8106 -0.608033 -0)
(-46.8153 -0.595432 -0)
(-46.8076 -0.582525 -3.08756e-21)
(-46.8124 -0.569305 -0)
(-46.7662 -0.555707 -0)
(-46.8035 -0.543316 -0)
(-46.8085 -0.530724 -2.81188e-21)
(-46.7653 -0.51719 -0)
(-46.7652 -0.504761 -2.67432e-21)
(-46.765 -0.49233 -0)
(-46.765 -0.479897 -0)
(-46.7968 -0.467159 -0)
(-46.8332 -0.455066 -0)
(-46.8013 -0.441508 -0)
(-46.7652 -0.428902 -2.27241e-21)
(-46.7935 -0.41671 -0)
(-46.7989 -0.402897 -0)
(-46.7921 -0.391166 -0)
(-46.7976 -0.377357 -0)
(-46.7909 -0.364994 -0)
(-46.7966 -0.351189 -0)
(-46.7676 -0.33852 -0)
(-46.7895 -0.325726 -0)
(-46.8157 -0.312686 -0)
(-46.795 -0.299461 -1.58597e-21)
(-46.7702 -0.285597 -0)
(-46.7884 -0.273351 -0)
(-46.8108 -0.259652 -6.87568e-22)
(-46.8097 -0.246548 -0)
(-46.8087 -0.233443 -0)
(-46.8077 -0.219714 -0)
(-46.8068 -0.205984 5.45454e-22)
(-46.806 -0.192878 -5.10749e-22)
(-46.7948 -0.17966 -0)
(-46.7795 -0.165953 4.39449e-22)
(-46.7892 -0.152262 -0)
(-46.8031 -0.138578 -0)
(-46.8025 -0.12547 -0)
(-46.802 -0.111738 -0)
(-46.8015 -0.0973811 -0)
(-46.8011 -0.0842388 -0)
(-46.8008 -0.0705395 -0)
(-46.8005 -0.0568063 -3.76063e-23)
(-46.8003 -0.0424488 -0)
(-46.8001 -0.028704 -0)
(-46.8 -0.014982 -0)
(-46.8 -0.0012485 2.58287e-26)
(-46.8 0.0118607 1.96298e-24)
(-47.1876 2.25395 0)
(-47.1895 2.26018 0)
(-47.075 2.26137 0)
(-46.8004 0.0511882 -3.38871e-23)
(-46.8006 0.0636729 0)
(-46.801 0.077375 0)
(-46.8013 0.0905147 1.19843e-22)
(-46.8017 0.103623 0)
(-46.8022 0.116731 0)
(-46.7898 0.130428 0)
(-46.7957 0.14349 0)
(-46.804 0.157303 0)
(-46.8047 0.17041 -4.51252e-22)
(-46.8054 0.183517 -4.85959e-22)
(-46.8063 0.197871 0)
(-46.8071 0.210977 0)
(-46.8081 0.224707 0)
(-46.8091 0.238436 0)
(-46.8102 0.252164 6.67739e-22)
(-46.9285 0.265932 0)
(-46.9298 0.280319 0)
(-46.7887 0.293929 0)
(-46.7691 0.306769 0)
(-46.7956 0.321276 0)
(-46.818 0.335145 0)
(-46.7902 0.348789 0)
(-46.797 0.363028 0)
(-46.9085 0.377778 0)
(-46.9155 0.392666 0)
(-46.7928 0.405496 0)
(-46.7653 0.418948 0)
(-46.8008 0.434036 0)
(-46.7955 0.447854 0)
(-46.7649 0.462488 0)
(-46.765 0.476167 0)
(-46.765 0.491086 0)
(-46.8821 0.506022 0)
(-47 0.522282 0)
(-46.8826 0.535923 0)
(-46.8104 0.550017 0)
(-46.8066 0.573191 0)
(-46.8153 0.595432 -6.30943e-21)
(-46.8117 0.617363 0)
(-46.7696 0.637278 0)
(-46.8876 0.657533 0)
(-46.8888 0.676191 7.16806e-21)
(-46.7731 0.691252 0)
(-46.8911 0.708801 7.51675e-21)
(-46.8924 0.724677 0)
(-46.7767 0.73742 0)
(-46.778 0.751377 0)
(-46.7792 0.764692 0)
(-46.7805 0.777084 0)
(-46.8986 0.791446 -8.39319e-21)
(-47.0175 0.805258 0)
(-46.9011 0.815039 0)
(-46.9022 0.824969 -8.7487e-21)
(-46.9036 0.836473 0)
(-46.9047 0.845447 0)
(-46.8384 0.8551 -9.07187e-21)
(-46.7286 0.861387 0)
(-46.7915 0.87215 -9.25275e-21)
(-46.7234 0.87951 0)
(-46.8465 0.889504 0)
(-46.9118 0.899757 0)
(-46.796 0.905556 0)
(-46.7971 0.912977 0)
(-46.726 0.919343 0)
(-46.8491 0.928186 0)
(-47.0348 0.939298 9.96514e-21)
(-46.9182 0.943766 0)
(-46.7281 0.947085 0)
(-46.8511 0.95475 0)
(-46.8455 0.961798 0)
(-46.8521 0.9671 0)
(-46.9232 0.975125 0)
(-46.8472 0.978476 1.03849e-20)
(-46.8539 0.983774 -1.0437e-20)
(-46.8089 0.988143 0)
(-46.8097 0.993085 0)
(-46.8121 1.00667 0)
(-46.9321 1.02714 0)
(-46.8539 1.04675 0)
(-46.7464 1.06724 0)
(-46.9458 1.09869 0)
(-46.9525 1.13021 0)
(-46.9601 1.16526 0)
(-47.087 1.20779 0)
(-46.9804 1.24969 2.65587e-20)
(-46.892 1.29488 0)
(-46.9208 1.34692 0)
(-46.9284 1.40005 2.97782e-20)
(-47.0496 1.45483 -3.09433e-20)
(-47.0559 1.50421 0)
(-46.9533 1.54149 0)
(-46.9604 1.57618 0)
(-46.9655 1.5999 0)
(-47.0858 1.61911 0)
(-46.9613 1.6239 0)
(-46.8516 1.62188 0)
(-46.9796 1.66127 0)
(-46.9902 1.70439 0)
(-46.8654 1.73823 0)
(-46.8783 1.77276 0)
(-46.8788 1.80448 -3.84884e-20)
(-46.8912 1.83294 0)
(-47.1526 1.87018 -3.99059e-20)
(-47.0134 1.89039 -4.03533e-20)
(-47.0249 1.9127 0)
(-47.0247 1.93615 0)
(-46.7699 1.9463 0)
(-46.8891 1.97075 -4.20858e-20)
(-46.8933 1.99115 4.25387e-20)
(-46.897 2.00958 -4.29322e-20)
(-46.878 1.77095 0)
(-47.1293 1.79124 0)
(-47.133 1.80407 0)
(-47.1359 1.81437 0)
(-47.1395 1.82649 0)
(-47.0255 1.83222 -3.90802e-20)
(-47.0027 1.84278 0)
(-47.0114 1.85373 -3.9539e-20)
(-47.1526 1.87018 0)
(-47.1271 1.88064 0)
(-46.8731 1.88046 -4.01252e-20)
(-46.7593 1.88668 0)
(-47.0234 1.9067 0)
(-47.1698 1.9241 0)
(-47.0232 1.92837 0)
(-46.882 1.93249 0)
(-46.8838 1.94277 4.14882e-20)
(-47.002 1.95774 0)
(-46.8877 1.96302 0)
(-46.7741 1.96768 0)
(-47.0447 1.98854 4.24656e-20)
(-47.1976 2.00586 4.28528e-20)
(-47.2028 2.02031 -4.31615e-20)
(-47.1684 2.03797 0)
(-47.1795 2.05481 0)
(-47.1785 2.07231 0)
(-46.9113 2.07445 0)
(-46.9146 2.08888 4.46626e-20)
(-47.034 2.10771 0)
(-47.0372 2.12099 0)
(-47.2059 2.14014 0)
(-47.3717 2.1591 0)
(-47.2075 2.16361 0)
(-47.0484 2.16544 0)
(-47.0513 2.17634 -4.65701e-20)
(-47.0536 2.18522 0)
(-47.056 2.19409 0)
(-47.0584 2.20296 4.71397e-20)
(-47.0609 2.21209 0)
(-47.063 2.21977 0)
(-47.404 3.08662 0)
(-47.3742 3.18103 0)
(-47.444 3.3036 0)
(-47.6373 3.45496 0)
(-47.7235 3.61771 0)
(-47.7043 3.78932 0)
(-47.7747 3.97355 0)
(-47.9387 4.13359 1.82192e-19)
(-48.1167 4.27028 0)
(-48.1668 4.37994 0)
(-48.2445 4.48287 1.99162e-19)
(-48.3178 4.58084 -2.04011e-19)
(-48.3899 4.67733 0)
(-48.4648 4.77847 -4.27892e-19)
(-48.5071 4.88537 -4.38839e-19)
(-48.5645 5.01172 0)
(-48.7363 5.1781 0)
(-48.7264 5.03314 0)
(-48.5112 4.84959 0)
(-49.0099 5.35654 0)
(-50.7115 6.68682 0)
(-52.7996 7.59013 8.20749e-19)
(-54.1195 7.77012 9.12734e-19)
(-54.4905 7.7911 0)
(-54.9109 7.80357 0)
(-55.3084 7.76814 -9.76126e-19)
(-55.9183 7.69007 0)
(-56.7456 7.51279 0)
(-57.8531 7.12518 0)
(-59.3949 6.27335 1.18472e-18)
(-61.537 4.31108 -1.27769e-18)
(-63.0407 -6.33764e-06 0)
(-61.5469 -4.31176 1.27789e-18)
(-59.4056 -6.27448 0)
(-57.8444 -7.12415 1.11083e-18)
(-56.7343 -7.51127 0)
(-55.9076 -7.68861 -1.01015e-18)
(-55.2982 -7.7667 9.75945e-19)
(-54.9109 -7.80357 -9.50816e-19)
(-54.588 -7.80498 0)
(-54.2163 -7.78406 0)
(-52.7996 -7.59013 -8.20749e-19)
(-50.7115 -6.68682 0)
(-49.0099 -5.35654 0)
(-48.5112 -4.84959 0)
(-48.7264 -5.03314 0)
(-48.7363 -5.1781 0)
(-48.5645 -5.01172 0)
(-48.5071 -4.88537 4.38839e-19)
(-48.4648 -4.77847 4.27892e-19)
(-48.4279 -4.681 2.08999e-19)
(-48.3555 -4.58441 2.0417e-19)
(-48.2445 -4.48287 0)
(-48.1668 -4.37994 0)
(-48.0826 -4.26711 0)
(-47.9055 -4.13087 1.82079e-19)
(-47.7747 -3.97355 0)
(-47.7043 -3.78932 0)
(-47.7235 -3.61771 0)
(-47.6641 -3.4569 0)
(-47.47 -3.30542 0)
(-47.4902 -3.18936 0)
(-47.5199 -3.09362 0)
(-47.4184 -3.01183 1.30143e-19)
(-47.3035 -2.95243 0)
(-47.1984 -2.9168 1.25893e-19)
(-47.3345 -2.91935 0)
(-47.4564 -2.94017 0)
(-47.4772 -2.93747 0)
(-47.3633 -2.88311 0)
(-47.348 -2.79037 0)
(-47.3645 -2.66847 1.14786e-19)
(-47.1659 -2.52988 -1.08662e-19)
(-47.0681 -2.41053 1.03397e-19)
(-47.0737 -2.31575 0)
(-47.102 -2.24052 0)
(-47.1181 -2.18102 -4.66666e-20)
(-47.0742 -2.13801 -4.57204e-20)
(-47.1938 -2.12157 0)
(-47.0755 -2.09348 0)
(-46.9098 -2.06814 0)
(-47.1749 -2.06013 -4.40301e-20)
(-47.1753 -2.04044 0)
(-46.897 -2.00958 4.29322e-20)
(-46.7778 -1.98625 -4.24339e-20)
(-46.7737 -1.9659 4.19822e-20)
(-46.7699 -1.9463 0)
(-47.0247 -1.93615 0)
(-47.0249 -1.9127 0)
(-47.0134 -1.89039 4.03533e-20)
(-47.1526 -1.87018 3.99059e-20)
(-46.8912 -1.83294 0)
(-46.8788 -1.80448 3.84884e-20)
(-46.8783 -1.77276 0)
(-46.8654 -1.73823 0)
(-46.9902 -1.70439 0)
(-46.9796 -1.66127 0)
(-46.8516 -1.62188 0)
(-46.9613 -1.6239 0)
(-47.0858 -1.61911 0)
(-46.9655 -1.5999 0)
(-46.9604 -1.57618 0)
(-46.9533 -1.54149 0)
(-47.0559 -1.50421 0)
(-47.0496 -1.45483 3.09433e-20)
(-46.9284 -1.40005 0)
(-46.9208 -1.34692 0)
(-46.892 -1.29488 0)
(-46.9804 -1.24969 -2.65587e-20)
(-47.087 -1.20779 0)
(-46.9601 -1.16526 1.23773e-20)
(-46.9525 -1.13021 0)
(-46.9458 -1.09869 0)
(-46.7464 -1.06724 0)
(-46.8539 -1.04675 0)
(-46.9321 -1.02714 0)
(-46.8121 -1.00667 0)
(-46.8097 -0.993085 0)
(-46.8089 -0.988143 0)
(-46.8539 -0.983774 1.0437e-20)
(-46.8472 -0.978476 -1.03849e-20)
(-46.9232 -0.975125 0)
(-46.8521 -0.9671 0)
(-46.8455 -0.961798 0)
(-46.8511 -0.95475 0)
(-46.7281 -0.947085 0)
(-46.8013 -0.941415 0)
(-46.9171 -0.93695 -9.94022e-21)
(-46.8491 -0.928186 0)
(-46.726 -0.919343 0)
(-46.7971 -0.912977 0)
(-46.796 -0.905556 0)
(-46.9118 -0.899757 0)
(-46.8465 -0.889504 0)
(-46.7234 -0.87951 0)
(-46.7915 -0.87215 9.25275e-21)
(-46.7286 -0.861387 0)
(-46.8384 -0.8551 9.07187e-21)
(-46.9047 -0.845447 0)
(-46.9036 -0.836473 0)
(-46.9022 -0.824969 8.7487e-21)
(-46.9011 -0.815039 0)
(-47.0175 -0.805258 0)
(-46.8986 -0.791446 0)
(-46.7805 -0.777084 0)
(-46.7792 -0.764692 0)
(-46.778 -0.751377 0)
(-46.7767 -0.73742 0)
(-46.8924 -0.724677 0)
(-46.8911 -0.708801 0)
(-46.7731 -0.691252 0)
(-46.8888 -0.676191 -7.16806e-21)
(-46.8876 -0.657533 0)
(-46.7696 -0.637278 0)
(-46.8117 -0.617363 0)
(-46.8153 -0.595432 6.30943e-21)
(-46.8066 -0.573191 0)
(-46.8104 -0.550017 -2.9141e-21)
(-46.8826 -0.535923 0)
(-47 -0.522282 0)
(-46.8821 -0.506022 0)
(-46.765 -0.491086 0)
(-46.765 -0.476167 0)
(-46.7649 -0.462488 0)
(-46.7955 -0.447854 0)
(-46.8008 -0.434036 0)
(-46.7653 -0.418948 0)
(-46.7928 -0.405496 0)
(-46.9155 -0.392666 0)
(-46.9085 -0.377778 0)
(-46.797 -0.363028 0)
(-46.7902 -0.348789 0)
(-46.818 -0.335145 0)
(-46.7956 -0.321276 0)
(-46.7691 -0.306769 0)
(-46.7887 -0.293929 0)
(-46.9298 -0.280319 0)
(-46.9285 -0.265932 0)
(-46.8102 -0.252164 -6.67739e-22)
(-46.8091 -0.238436 0)
(-46.8081 -0.224707 0)
(-46.8071 -0.210977 0)
(-46.8063 -0.197871 0)
(-46.8054 -0.183517 0)
(-46.8047 -0.17041 4.51252e-22)
(-46.804 -0.157303 0)
(-46.7957 -0.14349 0)
(-46.7898 -0.130428 0)
(-46.8022 -0.116731 0)
(-46.8017 -0.103623 0)
(-46.8013 -0.0905147 -1.19843e-22)
(-46.801 -0.077375 0)
(-46.8006 -0.0636729 0)
(-46.8004 -0.0511882 3.38871e-23)
(-46.8002 -0.0380791 0)
(-46.8001 -0.02496 0)
(-46.8 -0.0118607 -1.96298e-24)
(-46.8 0.0012485 -2.58287e-26)
(-46.8 0.014982 0)
(-46.8001 0.028704 0)
(-46.8003 0.0424488 0)
(-46.8005 0.0568063 3.76063e-23)
(-46.8008 0.0705395 0)
(-46.8011 0.0842388 0)
(-46.8015 0.0973811 0)
(-46.802 0.111738 0)
(-46.8025 0.12547 0)
(-46.8031 0.138578 0)
(-46.7892 0.152262 0)
(-46.7795 0.165953 -4.39449e-22)
(-46.7948 0.17966 0)
(-46.806 0.192878 5.10749e-22)
(-46.8068 0.205984 -5.45454e-22)
(-46.8077 0.219714 0)
(-46.8087 0.233443 0)
(-46.8097 0.246548 0)
(-46.8108 0.259652 6.87568e-22)
(-46.7884 0.273351 0)
(-46.7702 0.285597 -7.56271e-22)
(-46.795 0.299461 1.58597e-21)
(-46.8157 0.312686 0)
(-46.7895 0.325726 0)
(-46.7676 0.33852 0)
(-46.7966 0.351189 0)
(-46.7909 0.364994 0)
(-46.7976 0.377357 0)
(-46.7921 0.391166 0)
(-46.7989 0.402897 0)
(-46.7935 0.41671 0)
(-46.7652 0.428902 0)
(-46.8013 0.441508 0)
(-46.8332 0.455066 0)
(-46.7968 0.467159 0)
(-46.765 0.479897 0)
(-46.765 0.49233 0)
(-46.7652 0.504761 2.67432e-21)
(-46.7653 0.51719 0)
(-46.8085 0.530724 2.81188e-21)
(-46.8035 0.543316 0)
(-46.7662 0.555707 0)
(-46.8124 0.569305 0)
(-46.8076 0.582525 3.08756e-21)
(-46.8153 0.595432 0)
(-46.8106 0.608033 0)
(-46.8856 0.622069 0)
(-46.8863 0.63576 0)
(-46.7701 0.646587 0)
(-46.8234 0.659474 0)
(-46.8192 0.673595 0)
(-46.7726 0.68505 0)
(-46.8904 0.699817 0)
(-47.0091 0.714658 -7.57583e-21)
(-46.8925 0.72621 0)
(-46.7767 0.737126 0)
(-46.7779 0.749818 -7.95173e-21)
(-46.7791 0.762833 0)
(-46.8971 0.777162 0)
(-46.8985 0.790825 0)
(-46.783 0.801242 0)
(-46.7844 0.814246 0)
(-46.9027 0.828693 0)
(-46.9043 0.842345 0)
(-46.789 0.852963 9.04919e-21)
(-46.8391 0.86624 9.19006e-21)
(-46.9633 0.881197 0)
(-47.0285 0.895796 -9.50362e-21)
(-46.9127 0.906577 -9.618e-21)
(-46.9145 0.918976 9.74953e-21)
(-47.034 0.934328 0)
(-46.9184 0.945381 0)
(-46.8034 0.955011 -1.01318e-20)
(-46.8056 0.96837 0)
(-46.7309 0.979121 0)
(-46.7383 0.99179 0)
(-46.9288 1.00857 0)
(-46.9683 1.02278 -1.08595e-20)
(-46.8948 1.03371 0)
(-46.9772 1.04786 0)
(-46.9726 1.06174 0)
(-46.8632 1.07176 0)
(-46.9435 1.08694 0)
(-47.0637 1.10269 0)
(-46.9489 1.11353 0)
(-46.8637 1.12423 -1.19414e-20)
(-46.9889 1.14032 0)
(-46.9845 1.15296 0)
(-46.8756 1.16332 0)
(-46.8462 1.1753 0)
(-46.8492 1.18823 0)
(-46.8754 1.20162 0)
(-46.9059 1.21479 0)
(-46.9071 1.22816 -2.61012e-20)
(-47.005 1.24249 0)
(-46.8838 1.25262 0)
(-46.6783 1.25929 2.67629e-20)
(-46.7783 1.27418 0)
(-46.8911 1.28997 2.74259e-20)
(-46.8997 1.30252 0)
(-46.8959 1.31451 2.79477e-20)
(-46.9183 1.32795 0)
(-46.9198 1.33958 0)
(-46.9215 1.35243 0)
(-47.0294 1.36714 0)
(-47.0259 1.37978 -2.93472e-20)
(-46.9267 1.38905 0)
(-46.9285 1.40066 2.97912e-20)
(-46.9304 1.41288 0)
(-46.9322 1.42448 3.02979e-20)
(-46.9343 1.43726 -3.05819e-20)
(-46.9361 1.44829 3.08042e-20)
(-46.9383 1.46106 0)
(-46.9403 1.47265 0)
(-46.8258 1.48055 3.15031e-20)
(-46.8278 1.49208 0)
(-46.8302 1.50426 0)
(-46.8322 1.51518 0)
(-46.9512 1.53114 3.25926e-20)
(-46.9535 1.54271 -3.28389e-20)
(-46.9561 1.55549 3.3111e-20)
(-46.9587 1.56828 0)
(-46.9615 1.58166 0)
(-46.8407 1.58963 0)
(-46.8487 1.60254 0)
(-46.9698 1.61934 0)
(-46.9727 1.63213 -3.47704e-20)
(-46.8482 1.63982 3.49342e-20)
(-46.729 1.64822 0)
(-46.8583 1.66419 0)
(-46.9844 1.68129 0)
(-46.9875 1.69348 0)
(-46.9905 1.7056 0)
(-46.9935 1.71712 0)
(-46.9967 1.72923 3.68537e-20)
(-46.9999 1.74142 0)
(-46.8672 1.74786 0)
(-46.7401 1.75443 0)
(-47.065 2.22686 0)
(-47.0672 2.23454 0)
(-47.0692 2.24162 4.79864e-20)
(-47.0767 2.26727 0)
(-47.0783 2.27258 0)
(-47.08 2.27847 -4.8795e-20)
(-47.0817 2.28407 4.89347e-20)
(-47.0831 2.28849 0)
(-47.0848 2.29409 0)
(-47.0857 2.29732 0)
(-47.2037 2.30802 4.94479e-20)
(-47.2052 2.31275 0)
(-47.0898 2.31057 0)
(-47.2071 2.31923 -4.96881e-20)
(-47.3255 2.32854 -4.98875e-20)
(-47.3267 2.3324 0)
(-47.3272 2.33386 0)
(-47.2107 2.33044 -4.99282e-20)
(-47.2113 2.33252 0)
(-47.2124 2.33575 -5.00419e-20)
(-47.1008 2.345 0)
(-47.1068 2.36354 0)
(-47.044 2.37826 1.01988e-19)
(-47.056 2.40016 -1.02927e-19)
(-47.2447 2.43263 0)
(-47.1791 2.45491 -1.0536e-19)
(-47.193 2.48204 1.06525e-19)
(-47.2754 2.516 -1.08026e-19)
(-47.0896 2.5371 -1.0902e-19)
(-47.0219 2.56356 0)
(-47.0296 2.59384 0)
(-47.2409 2.63217 0)
(-47.2438 2.65754 1.14335e-19)
(-47.0486 2.66345 1.14589e-19)
(-47.0515 2.67375 0)
(-47.2613 2.68905 -1.15691e-19)
(-47.2542 2.68626 0)
(-47.0489 2.6646 0)
(-47.2517 2.66265 0)
(-47.4482 2.65951 0)
(-47.2443 2.65887 0)
(-47.0487 2.66391 0)
(-47.2735 2.69132 0)
(-47.5088 2.71918 0)
(-47.5262 2.7323 0)
(-47.3169 2.73204 0)
(-47.1136 2.72967 0)
(-47.1277 2.73849 0)
(-47.356 2.75857 0)
(-47.3524 2.7649 -1.19099e-19)
(-47.1448 2.75697 0)
(-47.361 2.7714 0)
(-47.5744 2.78655 1.20032e-19)
(-47.356 2.77404 0)
(-47.146 2.76073 1.1892e-19)
(-47.1453 2.7584 -1.18819e-19)
(-47.359 2.76628 0)
(-47.3512 2.7619 0)
(-47.1287 2.74175 1.18054e-19)
(-47.9765 2.78343 0)
)
;
    }
}


// ************************************************************************* //
